<?xml version="1.0"?>
<VTKFile type="UnstructuredGrid" version="0.1" byte_order="LittleEndian">
  <UnstructuredGrid>
    <Piece NumberOfPoints="11" NumberOfCells="11">
      <Points>
        <DataArray name="Position" type="Float64" NumberOfComponents="3" Format="ascii">
          0.223107 0.177005 0.0
          0.262232 0.0963224 0.0
          0.322412 0.212027 0.0
          0.385465 0.247949 0.0
          0.419402 0.197739 0.0
          0.244584 0.261914 0.0
          0.30437 0.326132 0.0
          0.384197 0.349969 0.0
          0.522452 0.192282 0.0
          0.515338 0.270054 0.0
          0.462738 0.329211 0.0
        </DataArray>
      </Points>
      <Cells>
        <DataArray type="Int32" Name="connectivity" Format="ascii">
          0
          1
          2
          3
          4
          5
          6
          7
          8
          9
          10
        </DataArray>
        <DataArray type="Int32" Name="offsets" Format="ascii">
          1
          2
          3
          4
          5
          6
          7
          8
          9
          10
          11
        </DataArray>
        <DataArray type="UInt8" Name="types" Format="ascii">
          1
          1
          1
          1
          1
          1
          1
          1
          1
          1
          1
        </DataArray>
      </Cells>
      <PointData Scalars="scalars">
        <DataArray type="Float64" Name="id" NumberOfComponents="1" Format="ascii">
          9
          10
          2
          1
          0
          8
          7
          6
          3
          4
          5
        </DataArray>
        <DataArray type="Float64" Name="function" NumberOfComponents="1" Format="ascii">
          1 
          1 
          1 
          0 
          1 
          0 
          0 
          0 
          0 
          0 
          0 
        </DataArray>
        <DataArray type="Float64" Name="initial C_0" NumberOfComponents="1" Format="ascii">
          0.983112 
          0.999994 
          0.42939 
          0.00934975 
          0.46503 
          0.0336214 
          2.87369e-05 
          -5.78121e-07 
          0.360367 
          0.000270852 
          2.61026e-06 
        </DataArray>
        <DataArray type="Float64" Name="initial position" NumberOfComponents="3" Format="ascii">
          0.254067 0.165306 0 
          0.295054 0.0928252 0 
          0.3505 0.207056 0 
          0.403537 0.249875 0 
          0.45 0.2 0 
          0.25805 0.248478 0 
          0.305774 0.316711 0 
          0.382534 0.34898 0 
          0.55 0.2 0 
          0.526889 0.279995 0 
          0.464676 0.33534 0 
        </DataArray>
      </PointData>
    </Piece>
  </UnstructuredGrid>
</VTKFile>
